Title: *** SPICE deck for cell 1bit-full-adder{sch} from library Full-adder
Date: Tue Nov 24 21:37:53 2015
Plotname: Operating Point
Flags: real
No. Variables: 1222
No. Points:            1
Offset:   0.0000000000000000e+000
Command: Linear Technology Corporation LTspice IV
Variables:
	0	V(net@1)	voltage
	1	V(a0)	voltage
	2	V(net@0)	voltage
	3	V(b0)	voltage
	4	V(net@8)	voltage
	5	V(net@20)	voltage
	6	V(net@22)	voltage
	7	V(net@66)	voltage
	8	V(net@84)	voltage
	9	V(net@132)	voltage
	10	V(net@83)	voltage
	11	V(cin)	voltage
	12	V(net@91)	voltage
	13	V(net@103)	voltage
	14	V(net@105)	voltage
	15	V(net@149)	voltage
	16	V(net@166)	voltage
	17	V(net@165)	voltage
	18	V(net@167)	voltage
	19	V(net@198)	voltage
	20	V(net@206)	voltage
	21	V(sum)	voltage
	22	V(net@373)	voltage
	23	V(a1)	voltage
	24	V(net@372)	voltage
	25	V(b1)	voltage
	26	V(net@374)	voltage
	27	V(net@390)	voltage
	28	V(net@378)	voltage
	29	V(net@531)	voltage
	30	V(net@552)	voltage
	31	V(net@422)	voltage
	32	V(net@550)	voltage
	33	V(net@440)	voltage
	34	V(net@475)	voltage
	35	V(net@602)	voltage
	36	V(net@585)	voltage
	37	V(net@383)	voltage
	38	V(net@604)	voltage
	39	V(net@382)	voltage
	40	V(net@391)	voltage
	41	V(net@636)	voltage
	42	V(sum1)	voltage
	43	V(net@647)	voltage
	44	V(a2)	voltage
	45	V(net@646)	voltage
	46	V(b2)	voltage
	47	V(net@648)	voltage
	48	V(net@664)	voltage
	49	V(net@652)	voltage
	50	V(net@805)	voltage
	51	V(net@826)	voltage
	52	V(net@696)	voltage
	53	V(net@824)	voltage
	54	V(net@714)	voltage
	55	V(net@749)	voltage
	56	V(net@876)	voltage
	57	V(net@859)	voltage
	58	V(net@657)	voltage
	59	V(net@878)	voltage
	60	V(net@656)	voltage
	61	V(net@665)	voltage
	62	V(net@910)	voltage
	63	V(sum2)	voltage
	64	V(net@1755)	voltage
	65	V(a3)	voltage
	66	V(net@1754)	voltage
	67	V(b3)	voltage
	68	V(net@1756)	voltage
	69	V(net@1844)	voltage
	70	V(net@1864)	voltage
	71	V(net@2286)	voltage
	72	V(net@1805)	voltage
	73	V(net@1784)	voltage
	74	V(net@2473)	voltage
	75	V(net@1770)	voltage
	76	V(net@1758)	voltage
	77	V(net@1760)	voltage
	78	V(net@1798)	voltage
	79	V(net@1816)	voltage
	80	V(net@1815)	voltage
	81	V(net@1817)	voltage
	82	V(net@1841)	voltage
	83	V(net@1851)	voltage
	84	V(sum3)	voltage
	85	V(net@1976)	voltage
	86	V(a4)	voltage
	87	V(net@1975)	voltage
	88	V(b4)	voltage
	89	V(net@1977)	voltage
	90	V(net@1995)	voltage
	91	V(net@1981)	voltage
	92	V(net@2147)	voltage
	93	V(net@2170)	voltage
	94	V(net@2031)	voltage
	95	V(net@2168)	voltage
	96	V(net@2050)	voltage
	97	V(net@2085)	voltage
	98	V(net@2226)	voltage
	99	V(net@2206)	voltage
	100	V(net@1987)	voltage
	101	V(net@2228)	voltage
	102	V(net@1825)	voltage
	103	V(net@1996)	voltage
	104	V(net@2260)	voltage
	105	V(sum4)	voltage
	106	V(net@2272)	voltage
	107	V(a5)	voltage
	108	V(net@2271)	voltage
	109	V(b5)	voltage
	110	V(net@2273)	voltage
	111	V(net@2291)	voltage
	112	V(net@2278)	voltage
	113	V(net@2447)	voltage
	114	V(net@2469)	voltage
	115	V(net@2326)	voltage
	116	V(net@2467)	voltage
	117	V(net@2347)	voltage
	118	V(net@2384)	voltage
	119	V(net@2524)	voltage
	120	V(net@2505)	voltage
	121	V(net@2283)	voltage
	122	V(net@2526)	voltage
	123	V(cout)	voltage
	124	V(net@2292)	voltage
	125	V(net@2563)	voltage
	126	V(sum5)	voltage
	127	V(vdd)	voltage
	128	V(net@7)	voltage
	129	V(net@90)	voltage
	130	V(net@217)	voltage
	131	V(net@201)	voltage
	132	V(net@535)	voltage
	133	V(net@559)	voltage
	134	V(net@375)	voltage
	135	V(net@630)	voltage
	136	V(net@809)	voltage
	137	V(net@833)	voltage
	138	V(net@649)	voltage
	139	V(net@904)	voltage
	140	V(net@2330)	voltage
	141	V(net@2551)	voltage
	142	V(net@1861)	voltage
	143	V(net@1846)	voltage
	144	V(net@2151)	voltage
	145	V(net@2177)	voltage
	146	V(net@1978)	voltage
	147	V(net@2254)	voltage
	148	V(net@2451)	voltage
	149	V(net@2477)	voltage
	150	V(net@2274)	voltage
	151	V(net@2556)	voltage
	152	Id(Mpmos@197)	device_current
	153	Ig(Mpmos@197)	device_current
	154	Ib(Mpmos@197)	device_current
	155	Is(Mpmos@197)	device_current
	156	Id(Mpmos@196)	device_current
	157	Ig(Mpmos@196)	device_current
	158	Ib(Mpmos@196)	device_current
	159	Is(Mpmos@196)	device_current
	160	Id(Mpmos@195)	device_current
	161	Ig(Mpmos@195)	device_current
	162	Ib(Mpmos@195)	device_current
	163	Is(Mpmos@195)	device_current
	164	Id(Mpmos@194)	device_current
	165	Ig(Mpmos@194)	device_current
	166	Ib(Mpmos@194)	device_current
	167	Is(Mpmos@194)	device_current
	168	Id(Mpmos@193)	device_current
	169	Ig(Mpmos@193)	device_current
	170	Ib(Mpmos@193)	device_current
	171	Is(Mpmos@193)	device_current
	172	Id(Mpmos@192)	device_current
	173	Ig(Mpmos@192)	device_current
	174	Ib(Mpmos@192)	device_current
	175	Is(Mpmos@192)	device_current
	176	Id(Mpmos@191)	device_current
	177	Ig(Mpmos@191)	device_current
	178	Ib(Mpmos@191)	device_current
	179	Is(Mpmos@191)	device_current
	180	Id(Mpmos@190)	device_current
	181	Ig(Mpmos@190)	device_current
	182	Ib(Mpmos@190)	device_current
	183	Is(Mpmos@190)	device_current
	184	Id(Mpmos@189)	device_current
	185	Ig(Mpmos@189)	device_current
	186	Ib(Mpmos@189)	device_current
	187	Is(Mpmos@189)	device_current
	188	Id(Mpmos@188)	device_current
	189	Ig(Mpmos@188)	device_current
	190	Ib(Mpmos@188)	device_current
	191	Is(Mpmos@188)	device_current
	192	Id(Mpmos@187)	device_current
	193	Ig(Mpmos@187)	device_current
	194	Ib(Mpmos@187)	device_current
	195	Is(Mpmos@187)	device_current
	196	Id(Mpmos@186)	device_current
	197	Ig(Mpmos@186)	device_current
	198	Ib(Mpmos@186)	device_current
	199	Is(Mpmos@186)	device_current
	200	Id(Mpmos@185)	device_current
	201	Ig(Mpmos@185)	device_current
	202	Ib(Mpmos@185)	device_current
	203	Is(Mpmos@185)	device_current
	204	Id(Mpmos@184)	device_current
	205	Ig(Mpmos@184)	device_current
	206	Ib(Mpmos@184)	device_current
	207	Is(Mpmos@184)	device_current
	208	Id(Mpmos@183)	device_current
	209	Ig(Mpmos@183)	device_current
	210	Ib(Mpmos@183)	device_current
	211	Is(Mpmos@183)	device_current
	212	Id(Mpmos@182)	device_current
	213	Ig(Mpmos@182)	device_current
	214	Ib(Mpmos@182)	device_current
	215	Is(Mpmos@182)	device_current
	216	Id(Mpmos@181)	device_current
	217	Ig(Mpmos@181)	device_current
	218	Ib(Mpmos@181)	device_current
	219	Is(Mpmos@181)	device_current
	220	Id(Mpmos@180)	device_current
	221	Ig(Mpmos@180)	device_current
	222	Ib(Mpmos@180)	device_current
	223	Is(Mpmos@180)	device_current
	224	Id(Mpmos@179)	device_current
	225	Ig(Mpmos@179)	device_current
	226	Ib(Mpmos@179)	device_current
	227	Is(Mpmos@179)	device_current
	228	Id(Mpmos@178)	device_current
	229	Ig(Mpmos@178)	device_current
	230	Ib(Mpmos@178)	device_current
	231	Is(Mpmos@178)	device_current
	232	Id(Mpmos@177)	device_current
	233	Ig(Mpmos@177)	device_current
	234	Ib(Mpmos@177)	device_current
	235	Is(Mpmos@177)	device_current
	236	Id(Mpmos@176)	device_current
	237	Ig(Mpmos@176)	device_current
	238	Ib(Mpmos@176)	device_current
	239	Is(Mpmos@176)	device_current
	240	Id(Mpmos@175)	device_current
	241	Ig(Mpmos@175)	device_current
	242	Ib(Mpmos@175)	device_current
	243	Is(Mpmos@175)	device_current
	244	Id(Mpmos@174)	device_current
	245	Ig(Mpmos@174)	device_current
	246	Ib(Mpmos@174)	device_current
	247	Is(Mpmos@174)	device_current
	248	Id(Mpmos@173)	device_current
	249	Ig(Mpmos@173)	device_current
	250	Ib(Mpmos@173)	device_current
	251	Is(Mpmos@173)	device_current
	252	Id(Mpmos@172)	device_current
	253	Ig(Mpmos@172)	device_current
	254	Ib(Mpmos@172)	device_current
	255	Is(Mpmos@172)	device_current
	256	Id(Mpmos@171)	device_current
	257	Ig(Mpmos@171)	device_current
	258	Ib(Mpmos@171)	device_current
	259	Is(Mpmos@171)	device_current
	260	Id(Mpmos@170)	device_current
	261	Ig(Mpmos@170)	device_current
	262	Ib(Mpmos@170)	device_current
	263	Is(Mpmos@170)	device_current
	264	Id(Mpmos@169)	device_current
	265	Ig(Mpmos@169)	device_current
	266	Ib(Mpmos@169)	device_current
	267	Is(Mpmos@169)	device_current
	268	Id(Mpmos@168)	device_current
	269	Ig(Mpmos@168)	device_current
	270	Ib(Mpmos@168)	device_current
	271	Is(Mpmos@168)	device_current
	272	Id(Mpmos@167)	device_current
	273	Ig(Mpmos@167)	device_current
	274	Ib(Mpmos@167)	device_current
	275	Is(Mpmos@167)	device_current
	276	Id(Mpmos@166)	device_current
	277	Ig(Mpmos@166)	device_current
	278	Ib(Mpmos@166)	device_current
	279	Is(Mpmos@166)	device_current
	280	Id(Mpmos@165)	device_current
	281	Ig(Mpmos@165)	device_current
	282	Ib(Mpmos@165)	device_current
	283	Is(Mpmos@165)	device_current
	284	Id(Mpmos@164)	device_current
	285	Ig(Mpmos@164)	device_current
	286	Ib(Mpmos@164)	device_current
	287	Is(Mpmos@164)	device_current
	288	Id(Mpmos@163)	device_current
	289	Ig(Mpmos@163)	device_current
	290	Ib(Mpmos@163)	device_current
	291	Is(Mpmos@163)	device_current
	292	Id(Mpmos@162)	device_current
	293	Ig(Mpmos@162)	device_current
	294	Ib(Mpmos@162)	device_current
	295	Is(Mpmos@162)	device_current
	296	Id(Mpmos@161)	device_current
	297	Ig(Mpmos@161)	device_current
	298	Ib(Mpmos@161)	device_current
	299	Is(Mpmos@161)	device_current
	300	Id(Mpmos@160)	device_current
	301	Ig(Mpmos@160)	device_current
	302	Ib(Mpmos@160)	device_current
	303	Is(Mpmos@160)	device_current
	304	Id(Mpmos@159)	device_current
	305	Ig(Mpmos@159)	device_current
	306	Ib(Mpmos@159)	device_current
	307	Is(Mpmos@159)	device_current
	308	Id(Mpmos@158)	device_current
	309	Ig(Mpmos@158)	device_current
	310	Ib(Mpmos@158)	device_current
	311	Is(Mpmos@158)	device_current
	312	Id(Mpmos@157)	device_current
	313	Ig(Mpmos@157)	device_current
	314	Ib(Mpmos@157)	device_current
	315	Is(Mpmos@157)	device_current
	316	Id(Mpmos@156)	device_current
	317	Ig(Mpmos@156)	device_current
	318	Ib(Mpmos@156)	device_current
	319	Is(Mpmos@156)	device_current
	320	Id(Mpmos@155)	device_current
	321	Ig(Mpmos@155)	device_current
	322	Ib(Mpmos@155)	device_current
	323	Is(Mpmos@155)	device_current
	324	Id(Mpmos@154)	device_current
	325	Ig(Mpmos@154)	device_current
	326	Ib(Mpmos@154)	device_current
	327	Is(Mpmos@154)	device_current
	328	Id(Mpmos@153)	device_current
	329	Ig(Mpmos@153)	device_current
	330	Ib(Mpmos@153)	device_current
	331	Is(Mpmos@153)	device_current
	332	Id(Mpmos@152)	device_current
	333	Ig(Mpmos@152)	device_current
	334	Ib(Mpmos@152)	device_current
	335	Is(Mpmos@152)	device_current
	336	Id(Mpmos@151)	device_current
	337	Ig(Mpmos@151)	device_current
	338	Ib(Mpmos@151)	device_current
	339	Is(Mpmos@151)	device_current
	340	Id(Mpmos@150)	device_current
	341	Ig(Mpmos@150)	device_current
	342	Ib(Mpmos@150)	device_current
	343	Is(Mpmos@150)	device_current
	344	Id(Mpmos@149)	device_current
	345	Ig(Mpmos@149)	device_current
	346	Ib(Mpmos@149)	device_current
	347	Is(Mpmos@149)	device_current
	348	Id(Mpmos@148)	device_current
	349	Ig(Mpmos@148)	device_current
	350	Ib(Mpmos@148)	device_current
	351	Is(Mpmos@148)	device_current
	352	Id(Mpmos@147)	device_current
	353	Ig(Mpmos@147)	device_current
	354	Ib(Mpmos@147)	device_current
	355	Is(Mpmos@147)	device_current
	356	Id(Mpmos@146)	device_current
	357	Ig(Mpmos@146)	device_current
	358	Ib(Mpmos@146)	device_current
	359	Is(Mpmos@146)	device_current
	360	Id(Mpmos@145)	device_current
	361	Ig(Mpmos@145)	device_current
	362	Ib(Mpmos@145)	device_current
	363	Is(Mpmos@145)	device_current
	364	Id(Mpmos@144)	device_current
	365	Ig(Mpmos@144)	device_current
	366	Ib(Mpmos@144)	device_current
	367	Is(Mpmos@144)	device_current
	368	Id(Mpmos@143)	device_current
	369	Ig(Mpmos@143)	device_current
	370	Ib(Mpmos@143)	device_current
	371	Is(Mpmos@143)	device_current
	372	Id(Mpmos@142)	device_current
	373	Ig(Mpmos@142)	device_current
	374	Ib(Mpmos@142)	device_current
	375	Is(Mpmos@142)	device_current
	376	Id(Mpmos@141)	device_current
	377	Ig(Mpmos@141)	device_current
	378	Ib(Mpmos@141)	device_current
	379	Is(Mpmos@141)	device_current
	380	Id(Mpmos@140)	device_current
	381	Ig(Mpmos@140)	device_current
	382	Ib(Mpmos@140)	device_current
	383	Is(Mpmos@140)	device_current
	384	Id(Mpmos@139)	device_current
	385	Ig(Mpmos@139)	device_current
	386	Ib(Mpmos@139)	device_current
	387	Is(Mpmos@139)	device_current
	388	Id(Mpmos@138)	device_current
	389	Ig(Mpmos@138)	device_current
	390	Ib(Mpmos@138)	device_current
	391	Is(Mpmos@138)	device_current
	392	Id(Mpmos@137)	device_current
	393	Ig(Mpmos@137)	device_current
	394	Ib(Mpmos@137)	device_current
	395	Is(Mpmos@137)	device_current
	396	Id(Mpmos@136)	device_current
	397	Ig(Mpmos@136)	device_current
	398	Ib(Mpmos@136)	device_current
	399	Is(Mpmos@136)	device_current
	400	Id(Mpmos@135)	device_current
	401	Ig(Mpmos@135)	device_current
	402	Ib(Mpmos@135)	device_current
	403	Is(Mpmos@135)	device_current
	404	Id(Mpmos@134)	device_current
	405	Ig(Mpmos@134)	device_current
	406	Ib(Mpmos@134)	device_current
	407	Is(Mpmos@134)	device_current
	408	Id(Mpmos@133)	device_current
	409	Ig(Mpmos@133)	device_current
	410	Ib(Mpmos@133)	device_current
	411	Is(Mpmos@133)	device_current
	412	Id(Mpmos@132)	device_current
	413	Ig(Mpmos@132)	device_current
	414	Ib(Mpmos@132)	device_current
	415	Is(Mpmos@132)	device_current
	416	Id(Mpmos@65)	device_current
	417	Ig(Mpmos@65)	device_current
	418	Ib(Mpmos@65)	device_current
	419	Is(Mpmos@65)	device_current
	420	Id(Mpmos@64)	device_current
	421	Ig(Mpmos@64)	device_current
	422	Ib(Mpmos@64)	device_current
	423	Is(Mpmos@64)	device_current
	424	Id(Mpmos@63)	device_current
	425	Ig(Mpmos@63)	device_current
	426	Ib(Mpmos@63)	device_current
	427	Is(Mpmos@63)	device_current
	428	Id(Mpmos@62)	device_current
	429	Ig(Mpmos@62)	device_current
	430	Ib(Mpmos@62)	device_current
	431	Is(Mpmos@62)	device_current
	432	Id(Mpmos@61)	device_current
	433	Ig(Mpmos@61)	device_current
	434	Ib(Mpmos@61)	device_current
	435	Is(Mpmos@61)	device_current
	436	Id(Mpmos@60)	device_current
	437	Ig(Mpmos@60)	device_current
	438	Ib(Mpmos@60)	device_current
	439	Is(Mpmos@60)	device_current
	440	Id(Mpmos@59)	device_current
	441	Ig(Mpmos@59)	device_current
	442	Ib(Mpmos@59)	device_current
	443	Is(Mpmos@59)	device_current
	444	Id(Mpmos@58)	device_current
	445	Ig(Mpmos@58)	device_current
	446	Ib(Mpmos@58)	device_current
	447	Is(Mpmos@58)	device_current
	448	Id(Mpmos@57)	device_current
	449	Ig(Mpmos@57)	device_current
	450	Ib(Mpmos@57)	device_current
	451	Is(Mpmos@57)	device_current
	452	Id(Mpmos@56)	device_current
	453	Ig(Mpmos@56)	device_current
	454	Ib(Mpmos@56)	device_current
	455	Is(Mpmos@56)	device_current
	456	Id(Mpmos@55)	device_current
	457	Ig(Mpmos@55)	device_current
	458	Ib(Mpmos@55)	device_current
	459	Is(Mpmos@55)	device_current
	460	Id(Mpmos@54)	device_current
	461	Ig(Mpmos@54)	device_current
	462	Ib(Mpmos@54)	device_current
	463	Is(Mpmos@54)	device_current
	464	Id(Mpmos@53)	device_current
	465	Ig(Mpmos@53)	device_current
	466	Ib(Mpmos@53)	device_current
	467	Is(Mpmos@53)	device_current
	468	Id(Mpmos@52)	device_current
	469	Ig(Mpmos@52)	device_current
	470	Ib(Mpmos@52)	device_current
	471	Is(Mpmos@52)	device_current
	472	Id(Mpmos@51)	device_current
	473	Ig(Mpmos@51)	device_current
	474	Ib(Mpmos@51)	device_current
	475	Is(Mpmos@51)	device_current
	476	Id(Mpmos@50)	device_current
	477	Ig(Mpmos@50)	device_current
	478	Ib(Mpmos@50)	device_current
	479	Is(Mpmos@50)	device_current
	480	Id(Mpmos@49)	device_current
	481	Ig(Mpmos@49)	device_current
	482	Ib(Mpmos@49)	device_current
	483	Is(Mpmos@49)	device_current
	484	Id(Mpmos@48)	device_current
	485	Ig(Mpmos@48)	device_current
	486	Ib(Mpmos@48)	device_current
	487	Is(Mpmos@48)	device_current
	488	Id(Mpmos@47)	device_current
	489	Ig(Mpmos@47)	device_current
	490	Ib(Mpmos@47)	device_current
	491	Is(Mpmos@47)	device_current
	492	Id(Mpmos@46)	device_current
	493	Ig(Mpmos@46)	device_current
	494	Ib(Mpmos@46)	device_current
	495	Is(Mpmos@46)	device_current
	496	Id(Mpmos@45)	device_current
	497	Ig(Mpmos@45)	device_current
	498	Ib(Mpmos@45)	device_current
	499	Is(Mpmos@45)	device_current
	500	Id(Mpmos@44)	device_current
	501	Ig(Mpmos@44)	device_current
	502	Ib(Mpmos@44)	device_current
	503	Is(Mpmos@44)	device_current
	504	Id(Mpmos@43)	device_current
	505	Ig(Mpmos@43)	device_current
	506	Ib(Mpmos@43)	device_current
	507	Is(Mpmos@43)	device_current
	508	Id(Mpmos@42)	device_current
	509	Ig(Mpmos@42)	device_current
	510	Ib(Mpmos@42)	device_current
	511	Is(Mpmos@42)	device_current
	512	Id(Mpmos@41)	device_current
	513	Ig(Mpmos@41)	device_current
	514	Ib(Mpmos@41)	device_current
	515	Is(Mpmos@41)	device_current
	516	Id(Mpmos@40)	device_current
	517	Ig(Mpmos@40)	device_current
	518	Ib(Mpmos@40)	device_current
	519	Is(Mpmos@40)	device_current
	520	Id(Mpmos@39)	device_current
	521	Ig(Mpmos@39)	device_current
	522	Ib(Mpmos@39)	device_current
	523	Is(Mpmos@39)	device_current
	524	Id(Mpmos@38)	device_current
	525	Ig(Mpmos@38)	device_current
	526	Ib(Mpmos@38)	device_current
	527	Is(Mpmos@38)	device_current
	528	Id(Mpmos@37)	device_current
	529	Ig(Mpmos@37)	device_current
	530	Ib(Mpmos@37)	device_current
	531	Is(Mpmos@37)	device_current
	532	Id(Mpmos@36)	device_current
	533	Ig(Mpmos@36)	device_current
	534	Ib(Mpmos@36)	device_current
	535	Is(Mpmos@36)	device_current
	536	Id(Mpmos@35)	device_current
	537	Ig(Mpmos@35)	device_current
	538	Ib(Mpmos@35)	device_current
	539	Is(Mpmos@35)	device_current
	540	Id(Mpmos@34)	device_current
	541	Ig(Mpmos@34)	device_current
	542	Ib(Mpmos@34)	device_current
	543	Is(Mpmos@34)	device_current
	544	Id(Mpmos@33)	device_current
	545	Ig(Mpmos@33)	device_current
	546	Ib(Mpmos@33)	device_current
	547	Is(Mpmos@33)	device_current
	548	Id(Mpmos@32)	device_current
	549	Ig(Mpmos@32)	device_current
	550	Ib(Mpmos@32)	device_current
	551	Is(Mpmos@32)	device_current
	552	Id(Mpmos@31)	device_current
	553	Ig(Mpmos@31)	device_current
	554	Ib(Mpmos@31)	device_current
	555	Is(Mpmos@31)	device_current
	556	Id(Mpmos@30)	device_current
	557	Ig(Mpmos@30)	device_current
	558	Ib(Mpmos@30)	device_current
	559	Is(Mpmos@30)	device_current
	560	Id(Mpmos@29)	device_current
	561	Ig(Mpmos@29)	device_current
	562	Ib(Mpmos@29)	device_current
	563	Is(Mpmos@29)	device_current
	564	Id(Mpmos@28)	device_current
	565	Ig(Mpmos@28)	device_current
	566	Ib(Mpmos@28)	device_current
	567	Is(Mpmos@28)	device_current
	568	Id(Mpmos@27)	device_current
	569	Ig(Mpmos@27)	device_current
	570	Ib(Mpmos@27)	device_current
	571	Is(Mpmos@27)	device_current
	572	Id(Mpmos@26)	device_current
	573	Ig(Mpmos@26)	device_current
	574	Ib(Mpmos@26)	device_current
	575	Is(Mpmos@26)	device_current
	576	Id(Mpmos@25)	device_current
	577	Ig(Mpmos@25)	device_current
	578	Ib(Mpmos@25)	device_current
	579	Is(Mpmos@25)	device_current
	580	Id(Mpmos@24)	device_current
	581	Ig(Mpmos@24)	device_current
	582	Ib(Mpmos@24)	device_current
	583	Is(Mpmos@24)	device_current
	584	Id(Mpmos@23)	device_current
	585	Ig(Mpmos@23)	device_current
	586	Ib(Mpmos@23)	device_current
	587	Is(Mpmos@23)	device_current
	588	Id(Mpmos@22)	device_current
	589	Ig(Mpmos@22)	device_current
	590	Ib(Mpmos@22)	device_current
	591	Is(Mpmos@22)	device_current
	592	Id(Mpmos@21)	device_current
	593	Ig(Mpmos@21)	device_current
	594	Ib(Mpmos@21)	device_current
	595	Is(Mpmos@21)	device_current
	596	Id(Mpmos@20)	device_current
	597	Ig(Mpmos@20)	device_current
	598	Ib(Mpmos@20)	device_current
	599	Is(Mpmos@20)	device_current
	600	Id(Mpmos@19)	device_current
	601	Ig(Mpmos@19)	device_current
	602	Ib(Mpmos@19)	device_current
	603	Is(Mpmos@19)	device_current
	604	Id(Mpmos@18)	device_current
	605	Ig(Mpmos@18)	device_current
	606	Ib(Mpmos@18)	device_current
	607	Is(Mpmos@18)	device_current
	608	Id(Mpmos@17)	device_current
	609	Ig(Mpmos@17)	device_current
	610	Ib(Mpmos@17)	device_current
	611	Is(Mpmos@17)	device_current
	612	Id(Mpmos@16)	device_current
	613	Ig(Mpmos@16)	device_current
	614	Ib(Mpmos@16)	device_current
	615	Is(Mpmos@16)	device_current
	616	Id(Mpmos@15)	device_current
	617	Ig(Mpmos@15)	device_current
	618	Ib(Mpmos@15)	device_current
	619	Is(Mpmos@15)	device_current
	620	Id(Mpmos@14)	device_current
	621	Ig(Mpmos@14)	device_current
	622	Ib(Mpmos@14)	device_current
	623	Is(Mpmos@14)	device_current
	624	Id(Mpmos@13)	device_current
	625	Ig(Mpmos@13)	device_current
	626	Ib(Mpmos@13)	device_current
	627	Is(Mpmos@13)	device_current
	628	Id(Mpmos@12)	device_current
	629	Ig(Mpmos@12)	device_current
	630	Ib(Mpmos@12)	device_current
	631	Is(Mpmos@12)	device_current
	632	Id(Mpmos@11)	device_current
	633	Ig(Mpmos@11)	device_current
	634	Ib(Mpmos@11)	device_current
	635	Is(Mpmos@11)	device_current
	636	Id(Mpmos@10)	device_current
	637	Ig(Mpmos@10)	device_current
	638	Ib(Mpmos@10)	device_current
	639	Is(Mpmos@10)	device_current
	640	Id(Mpmos@9)	device_current
	641	Ig(Mpmos@9)	device_current
	642	Ib(Mpmos@9)	device_current
	643	Is(Mpmos@9)	device_current
	644	Id(Mpmos@8)	device_current
	645	Ig(Mpmos@8)	device_current
	646	Ib(Mpmos@8)	device_current
	647	Is(Mpmos@8)	device_current
	648	Id(Mpmos@7)	device_current
	649	Ig(Mpmos@7)	device_current
	650	Ib(Mpmos@7)	device_current
	651	Is(Mpmos@7)	device_current
	652	Id(Mpmos@6)	device_current
	653	Ig(Mpmos@6)	device_current
	654	Ib(Mpmos@6)	device_current
	655	Is(Mpmos@6)	device_current
	656	Id(Mpmos@5)	device_current
	657	Ig(Mpmos@5)	device_current
	658	Ib(Mpmos@5)	device_current
	659	Is(Mpmos@5)	device_current
	660	Id(Mpmos@4)	device_current
	661	Ig(Mpmos@4)	device_current
	662	Ib(Mpmos@4)	device_current
	663	Is(Mpmos@4)	device_current
	664	Id(Mpmos@3)	device_current
	665	Ig(Mpmos@3)	device_current
	666	Ib(Mpmos@3)	device_current
	667	Is(Mpmos@3)	device_current
	668	Id(Mpmos@2)	device_current
	669	Ig(Mpmos@2)	device_current
	670	Ib(Mpmos@2)	device_current
	671	Is(Mpmos@2)	device_current
	672	Id(Mpmos@1)	device_current
	673	Ig(Mpmos@1)	device_current
	674	Ib(Mpmos@1)	device_current
	675	Is(Mpmos@1)	device_current
	676	Id(Mpmos@0)	device_current
	677	Ig(Mpmos@0)	device_current
	678	Ib(Mpmos@0)	device_current
	679	Is(Mpmos@0)	device_current
	680	Id(Mnmos@197)	device_current
	681	Ig(Mnmos@197)	device_current
	682	Ib(Mnmos@197)	device_current
	683	Is(Mnmos@197)	device_current
	684	Id(Mnmos@196)	device_current
	685	Ig(Mnmos@196)	device_current
	686	Ib(Mnmos@196)	device_current
	687	Is(Mnmos@196)	device_current
	688	Id(Mnmos@195)	device_current
	689	Ig(Mnmos@195)	device_current
	690	Ib(Mnmos@195)	device_current
	691	Is(Mnmos@195)	device_current
	692	Id(Mnmos@194)	device_current
	693	Ig(Mnmos@194)	device_current
	694	Ib(Mnmos@194)	device_current
	695	Is(Mnmos@194)	device_current
	696	Id(Mnmos@193)	device_current
	697	Ig(Mnmos@193)	device_current
	698	Ib(Mnmos@193)	device_current
	699	Is(Mnmos@193)	device_current
	700	Id(Mnmos@192)	device_current
	701	Ig(Mnmos@192)	device_current
	702	Ib(Mnmos@192)	device_current
	703	Is(Mnmos@192)	device_current
	704	Id(Mnmos@191)	device_current
	705	Ig(Mnmos@191)	device_current
	706	Ib(Mnmos@191)	device_current
	707	Is(Mnmos@191)	device_current
	708	Id(Mnmos@190)	device_current
	709	Ig(Mnmos@190)	device_current
	710	Ib(Mnmos@190)	device_current
	711	Is(Mnmos@190)	device_current
	712	Id(Mnmos@189)	device_current
	713	Ig(Mnmos@189)	device_current
	714	Ib(Mnmos@189)	device_current
	715	Is(Mnmos@189)	device_current
	716	Id(Mnmos@188)	device_current
	717	Ig(Mnmos@188)	device_current
	718	Ib(Mnmos@188)	device_current
	719	Is(Mnmos@188)	device_current
	720	Id(Mnmos@187)	device_current
	721	Ig(Mnmos@187)	device_current
	722	Ib(Mnmos@187)	device_current
	723	Is(Mnmos@187)	device_current
	724	Id(Mnmos@186)	device_current
	725	Ig(Mnmos@186)	device_current
	726	Ib(Mnmos@186)	device_current
	727	Is(Mnmos@186)	device_current
	728	Id(Mnmos@185)	device_current
	729	Ig(Mnmos@185)	device_current
	730	Ib(Mnmos@185)	device_current
	731	Is(Mnmos@185)	device_current
	732	Id(Mnmos@184)	device_current
	733	Ig(Mnmos@184)	device_current
	734	Ib(Mnmos@184)	device_current
	735	Is(Mnmos@184)	device_current
	736	Id(Mnmos@183)	device_current
	737	Ig(Mnmos@183)	device_current
	738	Ib(Mnmos@183)	device_current
	739	Is(Mnmos@183)	device_current
	740	Id(Mnmos@182)	device_current
	741	Ig(Mnmos@182)	device_current
	742	Ib(Mnmos@182)	device_current
	743	Is(Mnmos@182)	device_current
	744	Id(Mnmos@181)	device_current
	745	Ig(Mnmos@181)	device_current
	746	Ib(Mnmos@181)	device_current
	747	Is(Mnmos@181)	device_current
	748	Id(Mnmos@180)	device_current
	749	Ig(Mnmos@180)	device_current
	750	Ib(Mnmos@180)	device_current
	751	Is(Mnmos@180)	device_current
	752	Id(Mnmos@179)	device_current
	753	Ig(Mnmos@179)	device_current
	754	Ib(Mnmos@179)	device_current
	755	Is(Mnmos@179)	device_current
	756	Id(Mnmos@178)	device_current
	757	Ig(Mnmos@178)	device_current
	758	Ib(Mnmos@178)	device_current
	759	Is(Mnmos@178)	device_current
	760	Id(Mnmos@177)	device_current
	761	Ig(Mnmos@177)	device_current
	762	Ib(Mnmos@177)	device_current
	763	Is(Mnmos@177)	device_current
	764	Id(Mnmos@176)	device_current
	765	Ig(Mnmos@176)	device_current
	766	Ib(Mnmos@176)	device_current
	767	Is(Mnmos@176)	device_current
	768	Id(Mnmos@175)	device_current
	769	Ig(Mnmos@175)	device_current
	770	Ib(Mnmos@175)	device_current
	771	Is(Mnmos@175)	device_current
	772	Id(Mnmos@174)	device_current
	773	Ig(Mnmos@174)	device_current
	774	Ib(Mnmos@174)	device_current
	775	Is(Mnmos@174)	device_current
	776	Id(Mnmos@173)	device_current
	777	Ig(Mnmos@173)	device_current
	778	Ib(Mnmos@173)	device_current
	779	Is(Mnmos@173)	device_current
	780	Id(Mnmos@172)	device_current
	781	Ig(Mnmos@172)	device_current
	782	Ib(Mnmos@172)	device_current
	783	Is(Mnmos@172)	device_current
	784	Id(Mnmos@171)	device_current
	785	Ig(Mnmos@171)	device_current
	786	Ib(Mnmos@171)	device_current
	787	Is(Mnmos@171)	device_current
	788	Id(Mnmos@170)	device_current
	789	Ig(Mnmos@170)	device_current
	790	Ib(Mnmos@170)	device_current
	791	Is(Mnmos@170)	device_current
	792	Id(Mnmos@169)	device_current
	793	Ig(Mnmos@169)	device_current
	794	Ib(Mnmos@169)	device_current
	795	Is(Mnmos@169)	device_current
	796	Id(Mnmos@168)	device_current
	797	Ig(Mnmos@168)	device_current
	798	Ib(Mnmos@168)	device_current
	799	Is(Mnmos@168)	device_current
	800	Id(Mnmos@167)	device_current
	801	Ig(Mnmos@167)	device_current
	802	Ib(Mnmos@167)	device_current
	803	Is(Mnmos@167)	device_current
	804	Id(Mnmos@166)	device_current
	805	Ig(Mnmos@166)	device_current
	806	Ib(Mnmos@166)	device_current
	807	Is(Mnmos@166)	device_current
	808	Id(Mnmos@165)	device_current
	809	Ig(Mnmos@165)	device_current
	810	Ib(Mnmos@165)	device_current
	811	Is(Mnmos@165)	device_current
	812	Id(Mnmos@164)	device_current
	813	Ig(Mnmos@164)	device_current
	814	Ib(Mnmos@164)	device_current
	815	Is(Mnmos@164)	device_current
	816	Id(Mnmos@163)	device_current
	817	Ig(Mnmos@163)	device_current
	818	Ib(Mnmos@163)	device_current
	819	Is(Mnmos@163)	device_current
	820	Id(Mnmos@162)	device_current
	821	Ig(Mnmos@162)	device_current
	822	Ib(Mnmos@162)	device_current
	823	Is(Mnmos@162)	device_current
	824	Id(Mnmos@161)	device_current
	825	Ig(Mnmos@161)	device_current
	826	Ib(Mnmos@161)	device_current
	827	Is(Mnmos@161)	device_current
	828	Id(Mnmos@160)	device_current
	829	Ig(Mnmos@160)	device_current
	830	Ib(Mnmos@160)	device_current
	831	Is(Mnmos@160)	device_current
	832	Id(Mnmos@159)	device_current
	833	Ig(Mnmos@159)	device_current
	834	Ib(Mnmos@159)	device_current
	835	Is(Mnmos@159)	device_current
	836	Id(Mnmos@158)	device_current
	837	Ig(Mnmos@158)	device_current
	838	Ib(Mnmos@158)	device_current
	839	Is(Mnmos@158)	device_current
	840	Id(Mnmos@157)	device_current
	841	Ig(Mnmos@157)	device_current
	842	Ib(Mnmos@157)	device_current
	843	Is(Mnmos@157)	device_current
	844	Id(Mnmos@156)	device_current
	845	Ig(Mnmos@156)	device_current
	846	Ib(Mnmos@156)	device_current
	847	Is(Mnmos@156)	device_current
	848	Id(Mnmos@155)	device_current
	849	Ig(Mnmos@155)	device_current
	850	Ib(Mnmos@155)	device_current
	851	Is(Mnmos@155)	device_current
	852	Id(Mnmos@154)	device_current
	853	Ig(Mnmos@154)	device_current
	854	Ib(Mnmos@154)	device_current
	855	Is(Mnmos@154)	device_current
	856	Id(Mnmos@153)	device_current
	857	Ig(Mnmos@153)	device_current
	858	Ib(Mnmos@153)	device_current
	859	Is(Mnmos@153)	device_current
	860	Id(Mnmos@152)	device_current
	861	Ig(Mnmos@152)	device_current
	862	Ib(Mnmos@152)	device_current
	863	Is(Mnmos@152)	device_current
	864	Id(Mnmos@151)	device_current
	865	Ig(Mnmos@151)	device_current
	866	Ib(Mnmos@151)	device_current
	867	Is(Mnmos@151)	device_current
	868	Id(Mnmos@150)	device_current
	869	Ig(Mnmos@150)	device_current
	870	Ib(Mnmos@150)	device_current
	871	Is(Mnmos@150)	device_current
	872	Id(Mnmos@149)	device_current
	873	Ig(Mnmos@149)	device_current
	874	Ib(Mnmos@149)	device_current
	875	Is(Mnmos@149)	device_current
	876	Id(Mnmos@148)	device_current
	877	Ig(Mnmos@148)	device_current
	878	Ib(Mnmos@148)	device_current
	879	Is(Mnmos@148)	device_current
	880	Id(Mnmos@147)	device_current
	881	Ig(Mnmos@147)	device_current
	882	Ib(Mnmos@147)	device_current
	883	Is(Mnmos@147)	device_current
	884	Id(Mnmos@146)	device_current
	885	Ig(Mnmos@146)	device_current
	886	Ib(Mnmos@146)	device_current
	887	Is(Mnmos@146)	device_current
	888	Id(Mnmos@145)	device_current
	889	Ig(Mnmos@145)	device_current
	890	Ib(Mnmos@145)	device_current
	891	Is(Mnmos@145)	device_current
	892	Id(Mnmos@144)	device_current
	893	Ig(Mnmos@144)	device_current
	894	Ib(Mnmos@144)	device_current
	895	Is(Mnmos@144)	device_current
	896	Id(Mnmos@143)	device_current
	897	Ig(Mnmos@143)	device_current
	898	Ib(Mnmos@143)	device_current
	899	Is(Mnmos@143)	device_current
	900	Id(Mnmos@142)	device_current
	901	Ig(Mnmos@142)	device_current
	902	Ib(Mnmos@142)	device_current
	903	Is(Mnmos@142)	device_current
	904	Id(Mnmos@141)	device_current
	905	Ig(Mnmos@141)	device_current
	906	Ib(Mnmos@141)	device_current
	907	Is(Mnmos@141)	device_current
	908	Id(Mnmos@140)	device_current
	909	Ig(Mnmos@140)	device_current
	910	Ib(Mnmos@140)	device_current
	911	Is(Mnmos@140)	device_current
	912	Id(Mnmos@139)	device_current
	913	Ig(Mnmos@139)	device_current
	914	Ib(Mnmos@139)	device_current
	915	Is(Mnmos@139)	device_current
	916	Id(Mnmos@138)	device_current
	917	Ig(Mnmos@138)	device_current
	918	Ib(Mnmos@138)	device_current
	919	Is(Mnmos@138)	device_current
	920	Id(Mnmos@137)	device_current
	921	Ig(Mnmos@137)	device_current
	922	Ib(Mnmos@137)	device_current
	923	Is(Mnmos@137)	device_current
	924	Id(Mnmos@136)	device_current
	925	Ig(Mnmos@136)	device_current
	926	Ib(Mnmos@136)	device_current
	927	Is(Mnmos@136)	device_current
	928	Id(Mnmos@135)	device_current
	929	Ig(Mnmos@135)	device_current
	930	Ib(Mnmos@135)	device_current
	931	Is(Mnmos@135)	device_current