Title: *** SPICE deck for cell 1bit-full-adder{sch} from library Full-adder
Date: Tue Nov 24 21:37:53 2015
Plotname: Transient Analysis
Flags: real forward
No. Variables: 1223
No. Points:          293
Offset:   0.0000000000000000e+000
Command: Linear Technology Corporation LTspice IV
Variables:
	0	time	time
	1	V(net@1)	voltage
	2	V(a0)	voltage
	3	V(net@0)	voltage
	4	V(b0)	voltage
	5	V(net@8)	voltage
	6	V(net@20)	voltage
	7	V(net@22)	voltage
	8	V(net@66)	voltage
	9	V(net@84)	voltage
	10	V(net@132)	voltage
	11	V(net@83)	voltage
	12	V(cin)	voltage
	13	V(net@91)	voltage
	14	V(net@103)	voltage
	15	V(net@105)	voltage
	16	V(net@149)	voltage
	17	V(net@166)	voltage
	18	V(net@165)	voltage
	19	V(net@167)	voltage
	20	V(net@198)	voltage
	21	V(net@206)	voltage
	22	V(sum)	voltage
	23	V(net@373)	voltage
	24	V(a1)	voltage
	25	V(net@372)	voltage
	26	V(b1)	voltage
	27	V(net@374)	voltage
	28	V(net@390)	voltage
	29	V(net@378)	voltage
	30	V(net@531)	voltage
	31	V(net@552)	voltage
	32	V(net@422)	voltage
	33	V(net@550)	voltage
	34	V(net@440)	voltage
	35	V(net@475)	voltage
	36	V(net@602)	voltage
	37	V(net@585)	voltage
	38	V(net@383)	voltage
	39	V(net@604)	voltage
	40	V(net@382)	voltage
	41	V(net@391)	voltage
	42	V(net@636)	voltage
	43	V(sum1)	voltage
	44	V(net@647)	voltage
	45	V(a2)	voltage
	46	V(net@646)	voltage
	47	V(b2)	voltage
	48	V(net@648)	voltage
	49	V(net@664)	voltage
	50	V(net@652)	voltage
	51	V(net@805)	voltage
	52	V(net@826)	voltage
	53	V(net@696)	voltage
	54	V(net@824)	voltage
	55	V(net@714)	voltage
	56	V(net@749)	voltage
	57	V(net@876)	voltage
	58	V(net@859)	voltage
	59	V(net@657)	voltage
	60	V(net@878)	voltage
	61	V(net@656)	voltage
	62	V(net@665)	voltage
	63	V(net@910)	voltage
	64	V(sum2)	voltage
	65	V(net@1755)	voltage
	66	V(a3)	voltage
	67	V(net@1754)	voltage
	68	V(b3)	voltage
	69	V(net@1756)	voltage
	70	V(net@1844)	voltage
	71	V(net@1864)	voltage
	72	V(net@2286)	voltage
	73	V(net@1805)	voltage
	74	V(net@1784)	voltage
	75	V(net@2473)	voltage
	76	V(net@1770)	voltage
	77	V(net@1758)	voltage
	78	V(net@1760)	voltage
	79	V(net@1798)	voltage
	80	V(net@1816)	voltage
	81	V(net@1815)	voltage
	82	V(net@1817)	voltage
	83	V(net@1841)	voltage
	84	V(net@1851)	voltage
	85	V(sum3)	voltage
	86	V(net@1976)	voltage
	87	V(a4)	voltage
	88	V(net@1975)	voltage
	89	V(b4)	voltage
	90	V(net@1977)	voltage
	91	V(net@1995)	voltage
	92	V(net@1981)	voltage
	93	V(net@2147)	voltage
	94	V(net@2170)	voltage
	95	V(net@2031)	voltage
	96	V(net@2168)	voltage
	97	V(net@2050)	voltage
	98	V(net@2085)	voltage
	99	V(net@2226)	voltage
	100	V(net@2206)	voltage
	101	V(net@1987)	voltage
	102	V(net@2228)	voltage
	103	V(net@1825)	voltage
	104	V(net@1996)	voltage
	105	V(net@2260)	voltage
	106	V(sum4)	voltage
	107	V(net@2272)	voltage
	108	V(a5)	voltage
	109	V(net@2271)	voltage
	110	V(b5)	voltage
	111	V(net@2273)	voltage
	112	V(net@2291)	voltage
	113	V(net@2278)	voltage
	114	V(net@2447)	voltage
	115	V(net@2469)	voltage
	116	V(net@2326)	voltage
	117	V(net@2467)	voltage
	118	V(net@2347)	voltage
	119	V(net@2384)	voltage
	120	V(net@2524)	voltage
	121	V(net@2505)	voltage
	122	V(net@2283)	voltage
	123	V(net@2526)	voltage
	124	V(cout)	voltage
	125	V(net@2292)	voltage
	126	V(net@2563)	voltage
	127	V(sum5)	voltage
	128	V(vdd)	voltage
	129	V(net@7)	voltage
	130	V(net@90)	voltage
	131	V(net@217)	voltage
	132	V(net@201)	voltage
	133	V(net@535)	voltage
	134	V(net@559)	voltage
	135	V(net@375)	voltage
	136	V(net@630)	voltage
	137	V(net@809)	voltage
	138	V(net@833)	voltage
	139	V(net@649)	voltage
	140	V(net@904)	voltage
	141	V(net@2330)	voltage
	142	V(net@2551)	voltage
	143	V(net@1861)	voltage
	144	V(net@1846)	voltage
	145	V(net@2151)	voltage
	146	V(net@2177)	voltage
	147	V(net@1978)	voltage
	148	V(net@2254)	voltage
	149	V(net@2451)	voltage
	150	V(net@2477)	voltage
	151	V(net@2274)	voltage
	152	V(net@2556)	voltage
	153	Id(Mpmos@197)	device_current
	154	Ig(Mpmos@197)	device_current
	155	Ib(Mpmos@197)	device_current
	156	Is(Mpmos@197)	device_current
	157	Id(Mpmos@196)	device_current
	158	Ig(Mpmos@196)	device_current
	159	Ib(Mpmos@196)	device_current
	160	Is(Mpmos@196)	device_current
	161	Id(Mpmos@195)	device_current
	162	Ig(Mpmos@195)	device_current
	163	Ib(Mpmos@195)	device_current
	164	Is(Mpmos@195)	device_current
	165	Id(Mpmos@194)	device_current
	166	Ig(Mpmos@194)	device_current
	167	Ib(Mpmos@194)	device_current
	168	Is(Mpmos@194)	device_current
	169	Id(Mpmos@193)	device_current
	170	Ig(Mpmos@193)	device_current
	171	Ib(Mpmos@193)	device_current
	172	Is(Mpmos@193)	device_current
	173	Id(Mpmos@192)	device_current
	174	Ig(Mpmos@192)	device_current
	175	Ib(Mpmos@192)	device_current
	176	Is(Mpmos@192)	device_current
	177	Id(Mpmos@191)	device_current
	178	Ig(Mpmos@191)	device_current
	179	Ib(Mpmos@191)	device_current
	180	Is(Mpmos@191)	device_current
	181	Id(Mpmos@190)	device_current
	182	Ig(Mpmos@190)	device_current
	183	Ib(Mpmos@190)	device_current
	184	Is(Mpmos@190)	device_current
	185	Id(Mpmos@189)	device_current
	186	Ig(Mpmos@189)	device_current
	187	Ib(Mpmos@189)	device_current
	188	Is(Mpmos@189)	device_current
	189	Id(Mpmos@188)	device_current
	190	Ig(Mpmos@188)	device_current
	191	Ib(Mpmos@188)	device_current
	192	Is(Mpmos@188)	device_current
	193	Id(Mpmos@187)	device_current
	194	Ig(Mpmos@187)	device_current
	195	Ib(Mpmos@187)	device_current
	196	Is(Mpmos@187)	device_current
	197	Id(Mpmos@186)	device_current
	198	Ig(Mpmos@186)	device_current
	199	Ib(Mpmos@186)	device_current
	200	Is(Mpmos@186)	device_current
	201	Id(Mpmos@185)	device_current
	202	Ig(Mpmos@185)	device_current
	203	Ib(Mpmos@185)	device_current
	204	Is(Mpmos@185)	device_current
	205	Id(Mpmos@184)	device_current
	206	Ig(Mpmos@184)	device_current
	207	Ib(Mpmos@184)	device_current
	208	Is(Mpmos@184)	device_current
	209	Id(Mpmos@183)	device_current
	210	Ig(Mpmos@183)	device_current
	211	Ib(Mpmos@183)	device_current
	212	Is(Mpmos@183)	device_current
	213	Id(Mpmos@182)	device_current
	214	Ig(Mpmos@182)	device_current
	215	Ib(Mpmos@182)	device_current
	216	Is(Mpmos@182)	device_current
	217	Id(Mpmos@181)	device_current
	218	Ig(Mpmos@181)	device_current
	219	Ib(Mpmos@181)	device_current
	220	Is(Mpmos@181)	device_current
	221	Id(Mpmos@180)	device_current
	222	Ig(Mpmos@180)	device_current
	223	Ib(Mpmos@180)	device_current
	224	Is(Mpmos@180)	device_current
	225	Id(Mpmos@179)	device_current
	226	Ig(Mpmos@179)	device_current
	227	Ib(Mpmos@179)	device_current
	228	Is(Mpmos@179)	device_current
	229	Id(Mpmos@178)	device_current
	230	Ig(Mpmos@178)	device_current
	231	Ib(Mpmos@178)	device_current
	232	Is(Mpmos@178)	device_current
	233	Id(Mpmos@177)	device_current
	234	Ig(Mpmos@177)	device_current
	235	Ib(Mpmos@177)	device_current
	236	Is(Mpmos@177)	device_current
	237	Id(Mpmos@176)	device_current
	238	Ig(Mpmos@176)	device_current
	239	Ib(Mpmos@176)	device_current
	240	Is(Mpmos@176)	device_current
	241	Id(Mpmos@175)	device_current
	242	Ig(Mpmos@175)	device_current
	243	Ib(Mpmos@175)	device_current
	244	Is(Mpmos@175)	device_current
	245	Id(Mpmos@174)	device_current
	246	Ig(Mpmos@174)	device_current
	247	Ib(Mpmos@174)	device_current
	248	Is(Mpmos@174)	device_current
	249	Id(Mpmos@173)	device_current
	250	Ig(Mpmos@173)	device_current
	251	Ib(Mpmos@173)	device_current
	252	Is(Mpmos@173)	device_current
	253	Id(Mpmos@172)	device_current
	254	Ig(Mpmos@172)	device_current
	255	Ib(Mpmos@172)	device_current
	256	Is(Mpmos@172)	device_current
	257	Id(Mpmos@171)	device_current
	258	Ig(Mpmos@171)	device_current
	259	Ib(Mpmos@171)	device_current
	260	Is(Mpmos@171)	device_current
	261	Id(Mpmos@170)	device_current
	262	Ig(Mpmos@170)	device_current
	263	Ib(Mpmos@170)	device_current
	264	Is(Mpmos@170)	device_current
	265	Id(Mpmos@169)	device_current
	266	Ig(Mpmos@169)	device_current
	267	Ib(Mpmos@169)	device_current
	268	Is(Mpmos@169)	device_current
	269	Id(Mpmos@168)	device_current
	270	Ig(Mpmos@168)	device_current
	271	Ib(Mpmos@168)	device_current
	272	Is(Mpmos@168)	device_current
	273	Id(Mpmos@167)	device_current
	274	Ig(Mpmos@167)	device_current
	275	Ib(Mpmos@167)	device_current
	276	Is(Mpmos@167)	device_current
	277	Id(Mpmos@166)	device_current
	278	Ig(Mpmos@166)	device_current
	279	Ib(Mpmos@166)	device_current
	280	Is(Mpmos@166)	device_current
	281	Id(Mpmos@165)	device_current
	282	Ig(Mpmos@165)	device_current
	283	Ib(Mpmos@165)	device_current
	284	Is(Mpmos@165)	device_current
	285	Id(Mpmos@164)	device_current
	286	Ig(Mpmos@164)	device_current
	287	Ib(Mpmos@164)	device_current
	288	Is(Mpmos@164)	device_current
	289	Id(Mpmos@163)	device_current
	290	Ig(Mpmos@163)	device_current
	291	Ib(Mpmos@163)	device_current
	292	Is(Mpmos@163)	device_current
	293	Id(Mpmos@162)	device_current
	294	Ig(Mpmos@162)	device_current
	295	Ib(Mpmos@162)	device_current
	296	Is(Mpmos@162)	device_current
	297	Id(Mpmos@161)	device_current
	298	Ig(Mpmos@161)	device_current
	299	Ib(Mpmos@161)	device_current
	300	Is(Mpmos@161)	device_current
	301	Id(Mpmos@160)	device_current
	302	Ig(Mpmos@160)	device_current
	303	Ib(Mpmos@160)	device_current
	304	Is(Mpmos@160)	device_current
	305	Id(Mpmos@159)	device_current
	306	Ig(Mpmos@159)	device_current
	307	Ib(Mpmos@159)	device_current
	308	Is(Mpmos@159)	device_current
	309	Id(Mpmos@158)	device_current
	310	Ig(Mpmos@158)	device_current
	311	Ib(Mpmos@158)	device_current
	312	Is(Mpmos@158)	device_current
	313	Id(Mpmos@157)	device_current
	314	Ig(Mpmos@157)	device_current
	315	Ib(Mpmos@157)	device_current
	316	Is(Mpmos@157)	device_current
	317	Id(Mpmos@156)	device_current
	318	Ig(Mpmos@156)	device_current
	319	Ib(Mpmos@156)	device_current
	320	Is(Mpmos@156)	device_current
	321	Id(Mpmos@155)	device_current
	322	Ig(Mpmos@155)	device_current
	323	Ib(Mpmos@155)	device_current
	324	Is(Mpmos@155)	device_current
	325	Id(Mpmos@154)	device_current
	326	Ig(Mpmos@154)	device_current
	327	Ib(Mpmos@154)	device_current
	328	Is(Mpmos@154)	device_current
	329	Id(Mpmos@153)	device_current
	330	Ig(Mpmos@153)	device_current
	331	Ib(Mpmos@153)	device_current
	332	Is(Mpmos@153)	device_current
	333	Id(Mpmos@152)	device_current
	334	Ig(Mpmos@152)	device_current
	335	Ib(Mpmos@152)	device_current
	336	Is(Mpmos@152)	device_current
	337	Id(Mpmos@151)	device_current
	338	Ig(Mpmos@151)	device_current
	339	Ib(Mpmos@151)	device_current
	340	Is(Mpmos@151)	device_current
	341	Id(Mpmos@150)	device_current
	342	Ig(Mpmos@150)	device_current
	343	Ib(Mpmos@150)	device_current
	344	Is(Mpmos@150)	device_current
	345	Id(Mpmos@149)	device_current
	346	Ig(Mpmos@149)	device_current
	347	Ib(Mpmos@149)	device_current
	348	Is(Mpmos@149)	device_current
	349	Id(Mpmos@148)	device_current
	350	Ig(Mpmos@148)	device_current
	351	Ib(Mpmos@148)	device_current
	352	Is(Mpmos@148)	device_current
	353	Id(Mpmos@147)	device_current
	354	Ig(Mpmos@147)	device_current
	355	Ib(Mpmos@147)	device_current
	356	Is(Mpmos@147)	device_current
	357	Id(Mpmos@146)	device_current
	358	Ig(Mpmos@146)	device_current
	359	Ib(Mpmos@146)	device_current
	360	Is(Mpmos@146)	device_current
	361	Id(Mpmos@145)	device_current
	362	Ig(Mpmos@145)	device_current
	363	Ib(Mpmos@145)	device_current
	364	Is(Mpmos@145)	device_current
	365	Id(Mpmos@144)	device_current
	366	Ig(Mpmos@144)	device_current
	367	Ib(Mpmos@144)	device_current
	368	Is(Mpmos@144)	device_current
	369	Id(Mpmos@143)	device_current
	370	Ig(Mpmos@143)	device_current
	371	Ib(Mpmos@143)	device_current
	372	Is(Mpmos@143)	device_current
	373	Id(Mpmos@142)	device_current
	374	Ig(Mpmos@142)	device_current
	375	Ib(Mpmos@142)	device_current
	376	Is(Mpmos@142)	device_current
	377	Id(Mpmos@141)	device_current
	378	Ig(Mpmos@141)	device_current
	379	Ib(Mpmos@141)	device_current
	380	Is(Mpmos@141)	device_current
	381	Id(Mpmos@140)	device_current
	382	Ig(Mpmos@140)	device_current
	383	Ib(Mpmos@140)	device_current
	384	Is(Mpmos@140)	device_current
	385	Id(Mpmos@139)	device_current
	386	Ig(Mpmos@139)	device_current
	387	Ib(Mpmos@139)	device_current
	388	Is(Mpmos@139)	device_current
	389	Id(Mpmos@138)	device_current
	390	Ig(Mpmos@138)	device_current
	391	Ib(Mpmos@138)	device_current
	392	Is(Mpmos@138)	device_current
	393	Id(Mpmos@137)	device_current
	394	Ig(Mpmos@137)	device_current
	395	Ib(Mpmos@137)	device_current
	396	Is(Mpmos@137)	device_current
	397	Id(Mpmos@136)	device_current
	398	Ig(Mpmos@136)	device_current
	399	Ib(Mpmos@136)	device_current
	400	Is(Mpmos@136)	device_current
	401	Id(Mpmos@135)	device_current
	402	Ig(Mpmos@135)	device_current
	403	Ib(Mpmos@135)	device_current
	404	Is(Mpmos@135)	device_current
	405	Id(Mpmos@134)	device_current
	406	Ig(Mpmos@134)	device_current
	407	Ib(Mpmos@134)	device_current
	408	Is(Mpmos@134)	device_current
	409	Id(Mpmos@133)	device_current
	410	Ig(Mpmos@133)	device_current
	411	Ib(Mpmos@133)	device_current
	412	Is(Mpmos@133)	device_current
	413	Id(Mpmos@132)	device_current
	414	Ig(Mpmos@132)	device_current
	415	Ib(Mpmos@132)	device_current
	416	Is(Mpmos@132)	device_current
	417	Id(Mpmos@65)	device_current
	418	Ig(Mpmos@65)	device_current
	419	Ib(Mpmos@65)	device_current
	420	Is(Mpmos@65)	device_current
	421	Id(Mpmos@64)	device_current
	422	Ig(Mpmos@64)	device_current
	423	Ib(Mpmos@64)	device_current
	424	Is(Mpmos@64)	device_current
	425	Id(Mpmos@63)	device_current
	426	Ig(Mpmos@63)	device_current
	427	Ib(Mpmos@63)	device_current
	428	Is(Mpmos@63)	device_current
	429	Id(Mpmos@62)	device_current
	430	Ig(Mpmos@62)	device_current
	431	Ib(Mpmos@62)	device_current
	432	Is(Mpmos@62)	device_current
	433	Id(Mpmos@61)	device_current
	434	Ig(Mpmos@61)	device_current
	435	Ib(Mpmos@61)	device_current
	436	Is(Mpmos@61)	device_current
	437	Id(Mpmos@60)	device_current
	438	Ig(Mpmos@60)	device_current
	439	Ib(Mpmos@60)	device_current
	440	Is(Mpmos@60)	device_current
	441	Id(Mpmos@59)	device_current
	442	Ig(Mpmos@59)	device_current
	443	Ib(Mpmos@59)	device_current
	444	Is(Mpmos@59)	device_current
	445	Id(Mpmos@58)	device_current
	446	Ig(Mpmos@58)	device_current
	447	Ib(Mpmos@58)	device_current
	448	Is(Mpmos@58)	device_current
	449	Id(Mpmos@57)	device_current
	450	Ig(Mpmos@57)	device_current
	451	Ib(Mpmos@57)	device_current
	452	Is(Mpmos@57)	device_current
	453	Id(Mpmos@56)	device_current
	454	Ig(Mpmos@56)	device_current
	455	Ib(Mpmos@56)	device_current
	456	Is(Mpmos@56)	device_current
	457	Id(Mpmos@55)	device_current
	458	Ig(Mpmos@55)	device_current
	459	Ib(Mpmos@55)	device_current
	460	Is(Mpmos@55)	device_current
	461	Id(Mpmos@54)	device_current
	462	Ig(Mpmos@54)	device_current
	463	Ib(Mpmos@54)	device_current
	464	Is(Mpmos@54)	device_current
	465	Id(Mpmos@53)	device_current
	466	Ig(Mpmos@53)	device_current
	467	Ib(Mpmos@53)	device_current
	468	Is(Mpmos@53)	device_current
	469	Id(Mpmos@52)	device_current
	470	Ig(Mpmos@52)	device_current
	471	Ib(Mpmos@52)	device_current
	472	Is(Mpmos@52)	device_current
	473	Id(Mpmos@51)	device_current
	474	Ig(Mpmos@51)	device_current
	475	Ib(Mpmos@51)	device_current
	476	Is(Mpmos@51)	device_current
	477	Id(Mpmos@50)	device_current
	478	Ig(Mpmos@50)	device_current
	479	Ib(Mpmos@50)	device_current
	480	Is(Mpmos@50)	device_current
	481	Id(Mpmos@49)	device_current
	482	Ig(Mpmos@49)	device_current
	483	Ib(Mpmos@49)	device_current
	484	Is(Mpmos@49)	device_current
	485	Id(Mpmos@48)	device_current
	486	Ig(Mpmos@48)	device_current
	487	Ib(Mpmos@48)	device_current
	488	Is(Mpmos@48)	device_current
	489	Id(Mpmos@47)	device_current
	490	Ig(Mpmos@47)	device_current
	491	Ib(Mpmos@47)	device_current
	492	Is(Mpmos@47)	device_current
	493	Id(Mpmos@46)	device_current
	494	Ig(Mpmos@46)	device_current
	495	Ib(Mpmos@46)	device_current
	496	Is(Mpmos@46)	device_current
	497	Id(Mpmos@45)	device_current
	498	Ig(Mpmos@45)	device_current
	499	Ib(Mpmos@45)	device_current
	500	Is(Mpmos@45)	device_current
	501	Id(Mpmos@44)	device_current
	502	Ig(Mpmos@44)	device_current
	503	Ib(Mpmos@44)	device_current
	504	Is(Mpmos@44)	device_current
	505	Id(Mpmos@43)	device_current
	506	Ig(Mpmos@43)	device_current
	507	Ib(Mpmos@43)	device_current
	508	Is(Mpmos@43)	device_current
	509	Id(Mpmos@42)	device_current
	510	Ig(Mpmos@42)	device_current
	511	Ib(Mpmos@42)	device_current
	512	Is(Mpmos@42)	device_current
	513	Id(Mpmos@41)	device_current
	514	Ig(Mpmos@41)	device_current
	515	Ib(Mpmos@41)	device_current
	516	Is(Mpmos@41)	device_current
	517	Id(Mpmos@40)	device_current
	518	Ig(Mpmos@40)	device_current
	519	Ib(Mpmos@40)	device_current
	520	Is(Mpmos@40)	device_current
	521	Id(Mpmos@39)	device_current
	522	Ig(Mpmos@39)	device_current
	523	Ib(Mpmos@39)	device_current
	524	Is(Mpmos@39)	device_current
	525	Id(Mpmos@38)	device_current
	526	Ig(Mpmos@38)	device_current
	527	Ib(Mpmos@38)	device_current
	528	Is(Mpmos@38)	device_current
	529	Id(Mpmos@37)	device_current
	530	Ig(Mpmos@37)	device_current
	531	Ib(Mpmos@37)	device_current
	532	Is(Mpmos@37)	device_current
	533	Id(Mpmos@36)	device_current
	534	Ig(Mpmos@36)	device_current
	535	Ib(Mpmos@36)	device_current
	536	Is(Mpmos@36)	device_current
	537	Id(Mpmos@35)	device_current
	538	Ig(Mpmos@35)	device_current
	539	Ib(Mpmos@35)	device_current
	540	Is(Mpmos@35)	device_current
	541	Id(Mpmos@34)	device_current
	542	Ig(Mpmos@34)	device_current
	543	Ib(Mpmos@34)	device_current
	544	Is(Mpmos@34)	device_current
	545	Id(Mpmos@33)	device_current
	546	Ig(Mpmos@33)	device_current
	547	Ib(Mpmos@33)	device_current
	548	Is(Mpmos@33)	device_current
	549	Id(Mpmos@32)	device_current
	550	Ig(Mpmos@32)	device_current
	551	Ib(Mpmos@32)	device_current
	552	Is(Mpmos@32)	device_current
	553	Id(Mpmos@31)	device_current
	554	Ig(Mpmos@31)	device_current
	555	Ib(Mpmos@31)	device_current
	556	Is(Mpmos@31)	device_current
	557	Id(Mpmos@30)	device_current
	558	Ig(Mpmos@30)	device_current
	559	Ib(Mpmos@30)	device_current
	560	Is(Mpmos@30)	device_current
	561	Id(Mpmos@29)	device_current
	562	Ig(Mpmos@29)	device_current
	563	Ib(Mpmos@29)	device_current
	564	Is(Mpmos@29)	device_current
	565	Id(Mpmos@28)	device_current
	566	Ig(Mpmos@28)	device_current
	567	Ib(Mpmos@28)	device_current
	568	Is(Mpmos@28)	device_current
	569	Id(Mpmos@27)	device_current
	570	Ig(Mpmos@27)	device_current
	571	Ib(Mpmos@27)	device_current
	572	Is(Mpmos@27)	device_current
	573	Id(Mpmos@26)	device_current
	574	Ig(Mpmos@26)	device_current
	575	Ib(Mpmos@26)	device_current
	576	Is(Mpmos@26)	device_current
	577	Id(Mpmos@25)	device_current
	578	Ig(Mpmos@25)	device_current
	579	Ib(Mpmos@25)	device_current
	580	Is(Mpmos@25)	device_current
	581	Id(Mpmos@24)	device_current
	582	Ig(Mpmos@24)	device_current
	583	Ib(Mpmos@24)	device_current
	584	Is(Mpmos@24)	device_current
	585	Id(Mpmos@23)	device_current
	586	Ig(Mpmos@23)	device_current
	587	Ib(Mpmos@23)	device_current
	588	Is(Mpmos@23)	device_current
	589	Id(Mpmos@22)	device_current
	590	Ig(Mpmos@22)	device_current
	591	Ib(Mpmos@22)	device_current
	592	Is(Mpmos@22)	device_current
	593	Id(Mpmos@21)	device_current
	594	Ig(Mpmos@21)	device_current
	595	Ib(Mpmos@21)	device_current
	596	Is(Mpmos@21)	device_current
	597	Id(Mpmos@20)	device_current
	598	Ig(Mpmos@20)	device_current
	599	Ib(Mpmos@20)	device_current
	600	Is(Mpmos@20)	device_current
	601	Id(Mpmos@19)	device_current
	602	Ig(Mpmos@19)	device_current
	603	Ib(Mpmos@19)	device_current
	604	Is(Mpmos@19)	device_current
	605	Id(Mpmos@18)	device_current
	606	Ig(Mpmos@18)	device_current
	607	Ib(Mpmos@18)	device_current
	608	Is(Mpmos@18)	device_current
	609	Id(Mpmos@17)	device_current
	610	Ig(Mpmos@17)	device_current
	611	Ib(Mpmos@17)	device_current
	612	Is(Mpmos@17)	device_current
	613	Id(Mpmos@16)	device_current
	614	Ig(Mpmos@16)	device_current
	615	Ib(Mpmos@16)	device_current
	616	Is(Mpmos@16)	device_current
	617	Id(Mpmos@15)	device_current
	618	Ig(Mpmos@15)	device_current
	619	Ib(Mpmos@15)	device_current
	620	Is(Mpmos@15)	device_current
	621	Id(Mpmos@14)	device_current
	622	Ig(Mpmos@14)	device_current
	623	Ib(Mpmos@14)	device_current
	624	Is(Mpmos@14)	device_current
	625	Id(Mpmos@13)	device_current
	626	Ig(Mpmos@13)	device_current
	627	Ib(Mpmos@13)	device_current
	628	Is(Mpmos@13)	device_current
	629	Id(Mpmos@12)	device_current
	630	Ig(Mpmos@12)	device_current
	631	Ib(Mpmos@12)	device_current
	632	Is(Mpmos@12)	device_current
	633	Id(Mpmos@11)	device_current
	634	Ig(Mpmos@11)	device_current
	635	Ib(Mpmos@11)	device_current
	636	Is(Mpmos@11)	device_current
	637	Id(Mpmos@10)	device_current
	638	Ig(Mpmos@10)	device_current
	639	Ib(Mpmos@10)	device_current
	640	Is(Mpmos@10)	device_current
	641	Id(Mpmos@9)	device_current
	642	Ig(Mpmos@9)	device_current
	643	Ib(Mpmos@9)	device_current
	644	Is(Mpmos@9)	device_current
	645	Id(Mpmos@8)	device_current
	646	Ig(Mpmos@8)	device_current
	647	Ib(Mpmos@8)	device_current
	648	Is(Mpmos@8)	device_current
	649	Id(Mpmos@7)	device_current
	650	Ig(Mpmos@7)	device_current
	651	Ib(Mpmos@7)	device_current
	652	Is(Mpmos@7)	device_current
	653	Id(Mpmos@6)	device_current
	654	Ig(Mpmos@6)	device_current
	655	Ib(Mpmos@6)	device_current
	656	Is(Mpmos@6)	device_current
	657	Id(Mpmos@5)	device_current
	658	Ig(Mpmos@5)	device_current
	659	Ib(Mpmos@5)	device_current
	660	Is(Mpmos@5)	device_current
	661	Id(Mpmos@4)	device_current
	662	Ig(Mpmos@4)	device_current
	663	Ib(Mpmos@4)	device_current
	664	Is(Mpmos@4)	device_current
	665	Id(Mpmos@3)	device_current
	666	Ig(Mpmos@3)	device_current
	667	Ib(Mpmos@3)	device_current
	668	Is(Mpmos@3)	device_current
	669	Id(Mpmos@2)	device_current
	670	Ig(Mpmos@2)	device_current
	671	Ib(Mpmos@2)	device_current
	672	Is(Mpmos@2)	device_current
	673	Id(Mpmos@1)	device_current
	674	Ig(Mpmos@1)	device_current
	675	Ib(Mpmos@1)	device_current
	676	Is(Mpmos@1)	device_current
	677	Id(Mpmos@0)	device_current
	678	Ig(Mpmos@0)	device_current
	679	Ib(Mpmos@0)	device_current
	680	Is(Mpmos@0)	device_current
	681	Id(Mnmos@197)	device_current
	682	Ig(Mnmos@197)	device_current
	683	Ib(Mnmos@197)	device_current
	684	Is(Mnmos@197)	device_current
	685	Id(Mnmos@196)	device_current
	686	Ig(Mnmos@196)	device_current
	687	Ib(Mnmos@196)	device_current
	688	Is(Mnmos@196)	device_current
	689	Id(Mnmos@195)	device_current
	690	Ig(Mnmos@195)	device_current
	691	Ib(Mnmos@195)	device_current
	692	Is(Mnmos@195)	device_current
	693	Id(Mnmos@194)	device_current
	694	Ig(Mnmos@194)	device_current
	695	Ib(Mnmos@194)	device_current
	696	Is(Mnmos@194)	device_current
	697	Id(Mnmos@193)	device_current
	698	Ig(Mnmos@193)	device_current
	699	Ib(Mnmos@193)	device_current
	700	Is(Mnmos@193)	device_current
	701	Id(Mnmos@192)	device_current
	702	Ig(Mnmos@192)	device_current
	703	Ib(Mnmos@192)	device_current
	704	Is(Mnmos@192)	device_current
	705	Id(Mnmos@191)	device_current
	706	Ig(Mnmos@191)	device_current
	707	Ib(Mnmos@191)	device_current
	708	Is(Mnmos@191)	device_current
	709	Id(Mnmos@190)	device_current
	710	Ig(Mnmos@190)	device_current
	711	Ib(Mnmos@190)	device_current
	712	Is(Mnmos@190)	device_current
	713	Id(Mnmos@189)	device_current
	714	Ig(Mnmos@189)	device_current
	715	Ib(Mnmos@189)	device_current
	716	Is(Mnmos@189)	device_current
	717	Id(Mnmos@188)	device_current
	718	Ig(Mnmos@188)	device_current
	719	Ib(Mnmos@188)	device_current
	720	Is(Mnmos@188)	device_current
	721	Id(Mnmos@187)	device_current
	722	Ig(Mnmos@187)	device_current
	723	Ib(Mnmos@187)	device_current
	724	Is(Mnmos@187)	device_current
	725	Id(Mnmos@186)	device_current
	726	Ig(Mnmos@186)	device_current
	727	Ib(Mnmos@186)	device_current
	728	Is(Mnmos@186)	device_current
	729	Id(Mnmos@185)	device_current
	730	Ig(Mnmos@185)	device_current
	731	Ib(Mnmos@185)	device_current
	732	Is(Mnmos@185)	device_current
	733	Id(Mnmos@184)	device_current
	734	Ig(Mnmos@184)	device_current
	735	Ib(Mnmos@184)	device_current
	736	Is(Mnmos@184)	device_current
	737	Id(Mnmos@183)	device_current
	738	Ig(Mnmos@183)	device_current
	739	Ib(Mnmos@183)	device_current
	740	Is(Mnmos@183)	device_current
	741	Id(Mnmos@182)	device_current
	742	Ig(Mnmos@182)	device_current
	743	Ib(Mnmos@182)	device_current
	744	Is(Mnmos@182)	device_current
	745	Id(Mnmos@181)	device_current
	746	Ig(Mnmos@181)	device_current
	747	Ib(Mnmos@181)	device_current
	748	Is(Mnmos@181)	device_current
	749	Id(Mnmos@180)	device_current
	750	Ig(Mnmos@180)	device_current
	751	Ib(Mnmos@180)	device_current
	752	Is(Mnmos@180)	device_current
	753	Id(Mnmos@179)	device_current
	754	Ig(Mnmos@179)	device_current
	755	Ib(Mnmos@179)	device_current
	756	Is(Mnmos@179)	device_current
	757	Id(Mnmos@178)	device_current
	758	Ig(Mnmos@178)	device_current
	759	Ib(Mnmos@178)	device_current
	760	Is(Mnmos@178)	device_current
	761	Id(Mnmos@177)	device_current
	762	Ig(Mnmos@177)	device_current
	763	Ib(Mnmos@177)	device_current
	764	Is(Mnmos@177)	device_current
	765	Id(Mnmos@176)	device_current
	766	Ig(Mnmos@176)	device_current
	767	Ib(Mnmos@176)	device_current
	768	Is(Mnmos@176)	device_current
	769	Id(Mnmos@175)	device_current
	770	Ig(Mnmos@175)	device_current
	771	Ib(Mnmos@175)	device_current
	772	Is(Mnmos@175)	device_current
	773	Id(Mnmos@174)	device_current
	774	Ig(Mnmos@174)	device_current
	775	Ib(Mnmos@174)	device_current
	776	Is(Mnmos@174)	device_current
	777	Id(Mnmos@173)	device_current
	778	Ig(Mnmos@173)	device_current
	779	Ib(Mnmos@173)	device_current
	780	Is(Mnmos@173)	device_current
	781	Id(Mnmos@172)	device_current
	782	Ig(Mnmos@172)	device_current
	783	Ib(Mnmos@172)	device_current
	784	Is(Mnmos@172)	device_current
	785	Id(Mnmos@171)	device_current
	786	Ig(Mnmos@171)	device_current
	787	Ib(Mnmos@171)	device_current
	788	Is(Mnmos@171)	device_current
	789	Id(Mnmos@170)	device_current
	790	Ig(Mnmos@170)	device_current
	791	Ib(Mnmos@170)	device_current
	792	Is(Mnmos@170)	device_current
	793	Id(Mnmos@169)	device_current
	794	Ig(Mnmos@169)	device_current
	795	Ib(Mnmos@169)	device_current
	796	Is(Mnmos@169)	device_current
	797	Id(Mnmos@168)	device_current
	798	Ig(Mnmos@168)	device_current
	799	Ib(Mnmos@168)	device_current
	800	Is(Mnmos@168)	device_current
	801	Id(Mnmos@167)	device_current
	802	Ig(Mnmos@167)	device_current
	803	Ib(Mnmos@167)	device_current
	804	Is(Mnmos@167)	device_current
	805	Id(Mnmos@166)	device_current
	806	Ig(Mnmos@166)	device_current
	807	Ib(Mnmos@166)	device_current
	808	Is(Mnmos@166)	device_current
	809	Id(Mnmos@165)	device_current
	810	Ig(Mnmos@165)	device_current
	811	Ib(Mnmos@165)	device_current
	812	Is(Mnmos@165)	device_current
	813	Id(Mnmos@164)	device_current
	814	Ig(Mnmos@164)	device_current
	815	Ib(Mnmos@164)	device_current
	816	Is(Mnmos@164)	device_current
	817	Id(Mnmos@163)	device_current
	818	Ig(Mnmos@163)	device_current
	819	Ib(Mnmos@163)	device_current
	820	Is(Mnmos@163)	device_current
	821	Id(Mnmos@162)	device_current
	822	Ig(Mnmos@162)	device_current
	823	Ib(Mnmos@162)	device_current
	824	Is(Mnmos@162)	device_current
	825	Id(Mnmos@161)	device_current
	826	Ig(Mnmos@161)	device_current
	827	Ib(Mnmos@161)	device_current
	828	Is(Mnmos@161)	device_current
	829	Id(Mnmos@160)	device_current
	830	Ig(Mnmos@160)	device_current
	831	Ib(Mnmos@160)	device_current
	832	Is(Mnmos@160)	device_current
	833	Id(Mnmos@159)	device_current
	834	Ig(Mnmos@159)	device_current
	835	Ib(Mnmos@159)	device_current
	836	Is(Mnmos@159)	device_current
	837	Id(Mnmos@158)	device_current
	838	Ig(Mnmos@158)	device_current
	839	Ib(Mnmos@158)	device_current
	840	Is(Mnmos@158)	device_current
	841	Id(Mnmos@157)	device_current
	842	Ig(Mnmos@157)	device_current
	843	Ib(Mnmos@157)	device_current
	844	Is(Mnmos@157)	device_current
	845	Id(Mnmos@156)	device_current
	846	Ig(Mnmos@156)	device_current
	847	Ib(Mnmos@156)	device_current
	848	Is(Mnmos@156)	device_current
	849	Id(Mnmos@155)	device_current
	850	Ig(Mnmos@155)	device_current
	851	Ib(Mnmos@155)	device_current
	852	Is(Mnmos@155)	device_current
	853	Id(Mnmos@154)	device_current
	854	Ig(Mnmos@154)	device_current
	855	Ib(Mnmos@154)	device_current
	856	Is(Mnmos@154)	device_current
	857	Id(Mnmos@153)	device_current
	858	Ig(Mnmos@153)	device_current
	859	Ib(Mnmos@153)	device_current
	860	Is(Mnmos@153)	device_current
	861	Id(Mnmos@152)	device_current
	862	Ig(Mnmos@152)	device_current
	863	Ib(Mnmos@152)	device_current
	864	Is(Mnmos@152)	device_current
	865	Id(Mnmos@151)	device_current
	866	Ig(Mnmos@151)	device_current
	867	Ib(Mnmos@151)	device_current
	868	Is(Mnmos@151)	device_current
	869	Id(Mnmos@150)	device_current
	870	Ig(Mnmos@150)	device_current
	871	Ib(Mnmos@150)	device_current
	872	Is(Mnmos@150)	device_current
	873	Id(Mnmos@149)	device_current
	874	Ig(Mnmos@149)	device_current
	875	Ib(Mnmos@149)	device_current
	876	Is(Mnmos@149)	device_current
	877	Id(Mnmos@148)	device_current
	878	Ig(Mnmos@148)	device_current
	879	Ib(Mnmos@148)	device_current
	880	Is(Mnmos@148)	device_current
	881	Id(Mnmos@147)	device_current
	882	Ig(Mnmos@147)	device_current
	883	Ib(Mnmos@147)	device_current
	884	Is(Mnmos@147)	device_current
	885	Id(Mnmos@146)	device_current
	886	Ig(Mnmos@146)	device_current
	887	Ib(Mnmos@146)	device_current
	888	Is(Mnmos@146)	device_current
	889	Id(Mnmos@145)	device_current
	890	Ig(Mnmos@145)	device_current
	891	Ib(Mnmos@145)	device_current
	892	Is(Mnmos@145)	device_current
	893	Id(Mnmos@144)	device_current
	894	Ig(Mnmos@144)	device_current
	895	Ib(Mnmos@144)	device_current
	896	Is(Mnmos@144)	device_current
	897	Id(Mnmos@143)	device_current
	898	Ig(Mnmos@143)	device_current
	899	Ib(Mnmos@143)	device_current
	900	Is(Mnmos@143)	device_current
	901	Id(Mnmos@142)	device_current
	902	Ig(Mnmos@142)	device_current
	903	Ib(Mnmos@142)	device_current
	904	Is(Mnmos@142)	device_current
	905	Id(Mnmos@141)	device_current
	906	Ig(Mnmos@141)	device_current
	907	Ib(Mnmos@141)	device_current
	908	Is(Mnmos@141)	device_current
	909	Id(Mnmos@140)	device_current
	910	Ig(Mnmos@140)	device_current
	911	Ib(Mnmos@140)	device_current
	912	Is(Mnmos@140)	device_current
	913	Id(Mnmos@139)	device_current
	914	Ig(Mnmos@139)	device_current
	915	Ib(Mnmos@139)	device_current
	916	Is(Mnmos@139)	device_current
	917	Id(Mnmos@138)	device_current
	918	Ig(Mnmos@138)	device_current
	919	Ib(Mnmos@138)	device_current
	920	Is(Mnmos@138)	device_current
	921	Id(Mnmos@137)	device_current
	922	Ig(Mnmos@137)	device_current
	923	Ib(Mnmos@137)	device_current
	924	Is(Mnmos@137)	device_current
	925	Id(Mnmos@136)	device_current
	926	Ig(Mnmos@136)	device_current
	927	Ib(Mnmos@136)	device_current
	928	Is(Mnmos@136)	device_current
	929	Id(Mnmos@135)	device_current
	930	Ig(Mnmos@135)	device_current
	931	Ib(Mnmos@135)	device_current